
FAST Summary File

Predictions were generated on 15-Sep-2021 at 16:48:06 using OpenFAST, compiled as a 64-bit application using double precision at commit HEAD-HASH-NOTFOUND
  compiled with
    NWTC Subroutine Library
    ElastoDyn
    BeamDyn (unknown version, unknown date) [not called]
    InflowWind
    AeroDyn14 (unknown version, unknown date) [not called]
    AeroDyn
    ServoDyn
    HydroDyn (unknown version, unknown date) [not called]
    SubDyn (unknown version, unknown date) [not called]
    ExtPtfm_MCKF (unknown version, unknown date) [not called]
    MAP (unknown version, unknown date) [not called]
    FEAMooring (unknown version, unknown date) [not called]
    MoorDyn (unknown version, unknown date) [not called]
    OrcaFlexInterface (unknown version, unknown date) [not called]
    IceFloe (unknown version, unknown date) [not called]
    IceDyn (unknown version, unknown date) [not called]


Modeling a land-based turbine
Description from the FAST input file: 
  FAST Certification Test #26: NREL 5.0 MW Baseline Wind Turbine (Onshore)

Interpolation order for input/output time histories: 2 (quadratic)
Number of correction iterations:  0


   Requested Time Steps  
  -------------------------------------------------
  Component          Time Step (s)    Subcycles (-)
  -----------------  ---------------  -------------
  FAST (glue code)    6.250E-03
  InflowWind          6.250E-03              1
  ElastoDyn           6.250E-03              1
  AeroDyn             6.250E-03              1
  ServoDyn            6.250E-03              1
  FAST output files   6.250E-03              1


   Requested Channels in FAST Output File(s)  
  --------------------------------------------
  Number  Name                  Units                 Generated by
  ------  --------------------  --------------------  ------------
       1  Time                  (s)                   OpenFAST
       2  Wind1VelX             (m/s)                 InflowWind
       3  Wind1VelY             (m/s)                 InflowWind
       4  Wind1VelZ             (m/s)                 InflowWind
       5  OoPDefl1              (m)                   ElastoDyn
       6  IPDefl1               (m)                   ElastoDyn
       7  RotSpeed              (rpm)                 ElastoDyn
       8  GenSpeed              (rpm)                 ElastoDyn
       9  TTDspFA               (m)                   ElastoDyn
      10  TTDspSS               (m)                   ElastoDyn
      11  TTDspPtch             (deg)                 ElastoDyn
      12  RootMIP1              (kN-m)                ElastoDyn
      13  RootMOoP1             (kN-m)                ElastoDyn
      14  RootMzb1              (kN-m)                ElastoDyn
      15  RotTorq               (kN-m)                ElastoDyn
      16  LSSGagMya             (kN-m)                ElastoDyn
      17  LSSGagMza             (kN-m)                ElastoDyn
      18  YawBrMxp              (kN-m)                ElastoDyn
      19  YawBrMyp              (kN-m)                ElastoDyn
      20  YawBrMzp              (kN-m)                ElastoDyn
      21  TwrBsMxt              (kN-m)                ElastoDyn
      22  TwrBsMyt              (kN-m)                ElastoDyn
      23  TwrBsMzt              (kN-m)                ElastoDyn
      24  YawBrFxn              (kN)                  ElastoDyn
      25  GenPwr                (kW)                  ServoDyn
      26  GenTq                 (kN-m)                ServoDyn
      27  HSSBrTqC              (kN-m)                ServoDyn
      28  YawMomCom             (kN-m)                ServoDyn
